+ 0 /NodeList/0/DeviceList/1/$ns3::CsmaNetDevice/TxQueue/Enqueue ns3::EthernetHeader ( length/type=0x86dd, source=00:00:00:00:00:01, destination=33:33:ff:00:00:01) ns3::Ipv6Header ((Version 6 Traffic class 0x0 Flow Label 0x0 Payload Length 32 Next Header 58 Hop Limit 255 )0000:0000:0000:0000:0000:0000:0000:0000 > ff02:0000:0000:0000:0000:0000:0000:0001) ns3::Icmpv6NS (( type = 135 (NS) code = 0 checksum = 7545)) ns3::Icmpv6OptionLinkLayerAddress (( type = 1 length = 1 L2 Address = 00-06-00:00:00:00:00:01)) ns3::EthernetTrailer (fcs=0)
- 0 /NodeList/0/DeviceList/1/$ns3::CsmaNetDevice/TxQueue/Dequeue ns3::EthernetHeader ( length/type=0x86dd, source=00:00:00:00:00:01, destination=33:33:ff:00:00:01) ns3::Ipv6Header ((Version 6 Traffic class 0x0 Flow Label 0x0 Payload Length 32 Next Header 58 Hop Limit 255 )0000:0000:0000:0000:0000:0000:0000:0000 > ff02:0000:0000:0000:0000:0000:0000:0001) ns3::Icmpv6NS (( type = 135 (NS) code = 0 checksum = 7545)) ns3::Icmpv6OptionLinkLayerAddress (( type = 1 length = 1 L2 Address = 00-06-00:00:00:00:00:01)) ns3::EthernetTrailer (fcs=0)
+ 0 /NodeList/0/DeviceList/1/$ns3::CsmaNetDevice/TxQueue/Enqueue ns3::EthernetHeader ( length/type=0x86dd, source=00:00:00:00:00:01, destination=33:33:ff:00:00:01) ns3::Ipv6Header ((Version 6 Traffic class 0x0 Flow Label 0x0 Payload Length 32 Next Header 58 Hop Limit 255 )0000:0000:0000:0000:0000:0000:0000:0000 > ff02:0000:0000:0000:0000:0000:0000:0001) ns3::Icmpv6NS (( type = 135 (NS) code = 0 checksum = 40023)) ns3::Icmpv6OptionLinkLayerAddress (( type = 1 length = 1 L2 Address = 00-06-00:00:00:00:00:01)) ns3::EthernetTrailer (fcs=0)
+ 0 /NodeList/1/DeviceList/1/$ns3::CsmaNetDevice/TxQueue/Enqueue ns3::EthernetHeader ( length/type=0x86dd, source=00:00:00:00:00:02, destination=33:33:ff:00:00:02) ns3::Ipv6Header ((Version 6 Traffic class 0x0 Flow Label 0x0 Payload Length 32 Next Header 58 Hop Limit 255 )0000:0000:0000:0000:0000:0000:0000:0000 > ff02:0000:0000:0000:0000:0000:0000:0001) ns3::Icmpv6NS (( type = 135 (NS) code = 0 checksum = 7033)) ns3::Icmpv6OptionLinkLayerAddress (( type = 1 length = 1 L2 Address = 00-06-00:00:00:00:00:02)) ns3::EthernetTrailer (fcs=0)
- 0 /NodeList/1/DeviceList/1/$ns3::CsmaNetDevice/TxQueue/Dequeue ns3::EthernetHeader ( length/type=0x86dd, source=00:00:00:00:00:02, destination=33:33:ff:00:00:02) ns3::Ipv6Header ((Version 6 Traffic class 0x0 Flow Label 0x0 Payload Length 32 Next Header 58 Hop Limit 255 )0000:0000:0000:0000:0000:0000:0000:0000 > ff02:0000:0000:0000:0000:0000:0000:0001) ns3::Icmpv6NS (( type = 135 (NS) code = 0 checksum = 7033)) ns3::Icmpv6OptionLinkLayerAddress (( type = 1 length = 1 L2 Address = 00-06-00:00:00:00:00:02)) ns3::EthernetTrailer (fcs=0)
+ 0 /NodeList/1/DeviceList/1/$ns3::CsmaNetDevice/TxQueue/Enqueue ns3::EthernetHeader ( length/type=0x86dd, source=00:00:00:00:00:02, destination=33:33:ff:00:00:02) ns3::Ipv6Header ((Version 6 Traffic class 0x0 Flow Label 0x0 Payload Length 32 Next Header 58 Hop Limit 255 )0000:0000:0000:0000:0000:0000:0000:0000 > ff02:0000:0000:0000:0000:0000:0000:0001) ns3::Icmpv6NS (( type = 135 (NS) code = 0 checksum = 39511)) ns3::Icmpv6OptionLinkLayerAddress (( type = 1 length = 1 L2 Address = 00-06-00:00:00:00:00:02)) ns3::EthernetTrailer (fcs=0)
+ 0 /NodeList/1/DeviceList/2/$ns3::CsmaNetDevice/TxQueue/Enqueue ns3::EthernetHeader ( length/type=0x86dd, source=00:00:00:00:00:03, destination=33:33:ff:00:00:03) ns3::Ipv6Header ((Version 6 Traffic class 0x0 Flow Label 0x0 Payload Length 32 Next Header 58 Hop Limit 255 )0000:0000:0000:0000:0000:0000:0000:0000 > ff02:0000:0000:0000:0000:0000:0000:0001) ns3::Icmpv6NS (( type = 135 (NS) code = 0 checksum = 6521)) ns3::Icmpv6OptionLinkLayerAddress (( type = 1 length = 1 L2 Address = 00-06-00:00:00:00:00:03)) ns3::EthernetTrailer (fcs=0)
- 0 /NodeList/1/DeviceList/2/$ns3::CsmaNetDevice/TxQueue/Dequeue ns3::EthernetHeader ( length/type=0x86dd, source=00:00:00:00:00:03, destination=33:33:ff:00:00:03) ns3::Ipv6Header ((Version 6 Traffic class 0x0 Flow Label 0x0 Payload Length 32 Next Header 58 Hop Limit 255 )0000:0000:0000:0000:0000:0000:0000:0000 > ff02:0000:0000:0000:0000:0000:0000:0001) ns3::Icmpv6NS (( type = 135 (NS) code = 0 checksum = 6521)) ns3::Icmpv6OptionLinkLayerAddress (( type = 1 length = 1 L2 Address = 00-06-00:00:00:00:00:03)) ns3::EthernetTrailer (fcs=0)
+ 0 /NodeList/1/DeviceList/2/$ns3::CsmaNetDevice/TxQueue/Enqueue ns3::EthernetHeader ( length/type=0x86dd, source=00:00:00:00:00:03, destination=33:33:ff:00:00:03) ns3::Ipv6Header ((Version 6 Traffic class 0x0 Flow Label 0x0 Payload Length 32 Next Header 58 Hop Limit 255 )0000:0000:0000:0000:0000:0000:0000:0000 > ff02:0000:0000:0000:0000:0000:0000:0001) ns3::Icmpv6NS (( type = 135 (NS) code = 0 checksum = 38743)) ns3::Icmpv6OptionLinkLayerAddress (( type = 1 length = 1 L2 Address = 00-06-00:00:00:00:00:03)) ns3::EthernetTrailer (fcs=0)
+ 0 /NodeList/2/DeviceList/1/$ns3::CsmaNetDevice/TxQueue/Enqueue ns3::EthernetHeader ( length/type=0x86dd, source=00:00:00:00:00:04, destination=33:33:ff:00:00:04) ns3::Ipv6Header ((Version 6 Traffic class 0x0 Flow Label 0x0 Payload Length 32 Next Header 58 Hop Limit 255 )0000:0000:0000:0000:0000:0000:0000:0000 > ff02:0000:0000:0000:0000:0000:0000:0001) ns3::Icmpv6NS (( type = 135 (NS) code = 0 checksum = 6009)) ns3::Icmpv6OptionLinkLayerAddress (( type = 1 length = 1 L2 Address = 00-06-00:00:00:00:00:04)) ns3::EthernetTrailer (fcs=0)
- 0 /NodeList/2/DeviceList/1/$ns3::CsmaNetDevice/TxQueue/Dequeue ns3::EthernetHeader ( length/type=0x86dd, source=00:00:00:00:00:04, destination=33:33:ff:00:00:04) ns3::Ipv6Header ((Version 6 Traffic class 0x0 Flow Label 0x0 Payload Length 32 Next Header 58 Hop Limit 255 )0000:0000:0000:0000:0000:0000:0000:0000 > ff02:0000:0000:0000:0000:0000:0000:0001) ns3::Icmpv6NS (( type = 135 (NS) code = 0 checksum = 6009)) ns3::Icmpv6OptionLinkLayerAddress (( type = 1 length = 1 L2 Address = 00-06-00:00:00:00:00:04)) ns3::EthernetTrailer (fcs=0)
+ 0 /NodeList/2/DeviceList/1/$ns3::CsmaNetDevice/TxQueue/Enqueue ns3::EthernetHeader ( length/type=0x86dd, source=00:00:00:00:00:04, destination=33:33:ff:00:00:04) ns3::Ipv6Header ((Version 6 Traffic class 0x0 Flow Label 0x0 Payload Length 32 Next Header 58 Hop Limit 255 )0000:0000:0000:0000:0000:0000:0000:0000 > ff02:0000:0000:0000:0000:0000:0000:0001) ns3::Icmpv6NS (( type = 135 (NS) code = 0 checksum = 38231)) ns3::Icmpv6OptionLinkLayerAddress (( type = 1 length = 1 L2 Address = 00-06-00:00:00:00:00:04)) ns3::EthernetTrailer (fcs=0)
- 0.000163198 /NodeList/0/DeviceList/1/$ns3::CsmaNetDevice/TxQueue/Dequeue ns3::EthernetHeader ( length/type=0x86dd, source=00:00:00:00:00:01, destination=33:33:ff:00:00:01) ns3::Ipv6Header ((Version 6 Traffic class 0x0 Flow Label 0x0 Payload Length 32 Next Header 58 Hop Limit 255 )0000:0000:0000:0000:0000:0000:0000:0000 > ff02:0000:0000:0000:0000:0000:0000:0001) ns3::Icmpv6NS (( type = 135 (NS) code = 0 checksum = 40023)) ns3::Icmpv6OptionLinkLayerAddress (( type = 1 length = 1 L2 Address = 00-06-00:00:00:00:00:01)) ns3::EthernetTrailer (fcs=0)
- 0.000163198 /NodeList/1/DeviceList/2/$ns3::CsmaNetDevice/TxQueue/Dequeue ns3::EthernetHeader ( length/type=0x86dd, source=00:00:00:00:00:03, destination=33:33:ff:00:00:03) ns3::Ipv6Header ((Version 6 Traffic class 0x0 Flow Label 0x0 Payload Length 32 Next Header 58 Hop Limit 255 )0000:0000:0000:0000:0000:0000:0000:0000 > ff02:0000:0000:0000:0000:0000:0000:0001) ns3::Icmpv6NS (( type = 135 (NS) code = 0 checksum = 38743)) ns3::Icmpv6OptionLinkLayerAddress (( type = 1 length = 1 L2 Address = 00-06-00:00:00:00:00:03)) ns3::EthernetTrailer (fcs=0)
r 0.002144 /NodeList/1/DeviceList/1/$ns3::CsmaNetDevice/MacRx ns3::EthernetHeader ( length/type=0x86dd, source=00:00:00:00:00:01, destination=33:33:ff:00:00:01) ns3::Ipv6Header ((Version 6 Traffic class 0x0 Flow Label 0x0 Payload Length 32 Next Header 58 Hop Limit 255 )0000:0000:0000:0000:0000:0000:0000:0000 > ff02:0000:0000:0000:0000:0000:0000:0001) ns3::Icmpv6NS (( type = 135 (NS) code = 0 checksum = 7545)) ns3::Icmpv6OptionLinkLayerAddress (( type = 1 length = 1 L2 Address = 00-06-00:00:00:00:00:01)) ns3::EthernetTrailer (fcs=0)
r 0.002144 /NodeList/2/DeviceList/1/$ns3::CsmaNetDevice/MacRx ns3::EthernetHeader ( length/type=0x86dd, source=00:00:00:00:00:03, destination=33:33:ff:00:00:03) ns3::Ipv6Header ((Version 6 Traffic class 0x0 Flow Label 0x0 Payload Length 32 Next Header 58 Hop Limit 255 )0000:0000:0000:0000:0000:0000:0000:0000 > ff02:0000:0000:0000:0000:0000:0000:0001) ns3::Icmpv6NS (( type = 135 (NS) code = 0 checksum = 6521)) ns3::Icmpv6OptionLinkLayerAddress (( type = 1 length = 1 L2 Address = 00-06-00:00:00:00:00:03)) ns3::EthernetTrailer (fcs=0)
- 0.0023272 /NodeList/1/DeviceList/1/$ns3::CsmaNetDevice/TxQueue/Dequeue ns3::EthernetHeader ( length/type=0x86dd, source=00:00:00:00:00:02, destination=33:33:ff:00:00:02) ns3::Ipv6Header ((Version 6 Traffic class 0x0 Flow Label 0x0 Payload Length 32 Next Header 58 Hop Limit 255 )0000:0000:0000:0000:0000:0000:0000:0000 > ff02:0000:0000:0000:0000:0000:0000:0001) ns3::Icmpv6NS (( type = 135 (NS) code = 0 checksum = 39511)) ns3::Icmpv6OptionLinkLayerAddress (( type = 1 length = 1 L2 Address = 00-06-00:00:00:00:00:02)) ns3::EthernetTrailer (fcs=0)
r 0.004308 /NodeList/0/DeviceList/1/$ns3::CsmaNetDevice/MacRx ns3::EthernetHeader ( length/type=0x86dd, source=00:00:00:00:00:02, destination=33:33:ff:00:00:02) ns3::Ipv6Header ((Version 6 Traffic class 0x0 Flow Label 0x0 Payload Length 32 Next Header 58 Hop Limit 255 )0000:0000:0000:0000:0000:0000:0000:0000 > ff02:0000:0000:0000:0000:0000:0000:0001) ns3::Icmpv6NS (( type = 135 (NS) code = 0 checksum = 7033)) ns3::Icmpv6OptionLinkLayerAddress (( type = 1 length = 1 L2 Address = 00-06-00:00:00:00:00:02)) ns3::EthernetTrailer (fcs=0)
r 0.0048132 /NodeList/2/DeviceList/1/$ns3::CsmaNetDevice/MacRx ns3::EthernetHeader ( length/type=0x86dd, source=00:00:00:00:00:03, destination=33:33:ff:00:00:03) ns3::Ipv6Header ((Version 6 Traffic class 0x0 Flow Label 0x0 Payload Length 32 Next Header 58 Hop Limit 255 )0000:0000:0000:0000:0000:0000:0000:0000 > ff02:0000:0000:0000:0000:0000:0000:0001) ns3::Icmpv6NS (( type = 135 (NS) code = 0 checksum = 38743)) ns3::Icmpv6OptionLinkLayerAddress (( type = 1 length = 1 L2 Address = 00-06-00:00:00:00:00:03)) ns3::EthernetTrailer (fcs=0)
- 0.0054162 /NodeList/2/DeviceList/1/$ns3::CsmaNetDevice/TxQueue/Dequeue ns3::EthernetHeader ( length/type=0x86dd, source=00:00:00:00:00:04, destination=33:33:ff:00:00:04) ns3::Ipv6Header ((Version 6 Traffic class 0x0 Flow Label 0x0 Payload Length 32 Next Header 58 Hop Limit 255 )0000:0000:0000:0000:0000:0000:0000:0000 > ff02:0000:0000:0000:0000:0000:0000:0001) ns3::Icmpv6NS (( type = 135 (NS) code = 0 checksum = 38231)) ns3::Icmpv6OptionLinkLayerAddress (( type = 1 length = 1 L2 Address = 00-06-00:00:00:00:00:04)) ns3::EthernetTrailer (fcs=0)
r 0.0065172 /NodeList/1/DeviceList/1/$ns3::CsmaNetDevice/MacRx ns3::EthernetHeader ( length/type=0x86dd, source=00:00:00:00:00:01, destination=33:33:ff:00:00:01) ns3::Ipv6Header ((Version 6 Traffic class 0x0 Flow Label 0x0 Payload Length 32 Next Header 58 Hop Limit 255 )0000:0000:0000:0000:0000:0000:0000:0000 > ff02:0000:0000:0000:0000:0000:0000:0001) ns3::Icmpv6NS (( type = 135 (NS) code = 0 checksum = 40023)) ns3::Icmpv6OptionLinkLayerAddress (( type = 1 length = 1 L2 Address = 00-06-00:00:00:00:00:01)) ns3::EthernetTrailer (fcs=0)
r 0.007397 /NodeList/1/DeviceList/2/$ns3::CsmaNetDevice/MacRx ns3::EthernetHeader ( length/type=0x86dd, source=00:00:00:00:00:04, destination=33:33:ff:00:00:04) ns3::Ipv6Header ((Version 6 Traffic class 0x0 Flow Label 0x0 Payload Length 32 Next Header 58 Hop Limit 255 )0000:0000:0000:0000:0000:0000:0000:0000 > ff02:0000:0000:0000:0000:0000:0000:0001) ns3::Icmpv6NS (( type = 135 (NS) code = 0 checksum = 6009)) ns3::Icmpv6OptionLinkLayerAddress (( type = 1 length = 1 L2 Address = 00-06-00:00:00:00:00:04)) ns3::EthernetTrailer (fcs=0)
r 0.0092772 /NodeList/0/DeviceList/1/$ns3::CsmaNetDevice/MacRx ns3::EthernetHeader ( length/type=0x86dd, source=00:00:00:00:00:02, destination=33:33:ff:00:00:02) ns3::Ipv6Header ((Version 6 Traffic class 0x0 Flow Label 0x0 Payload Length 32 Next Header 58 Hop Limit 255 )0000:0000:0000:0000:0000:0000:0000:0000 > ff02:0000:0000:0000:0000:0000:0000:0001) ns3::Icmpv6NS (( type = 135 (NS) code = 0 checksum = 39511)) ns3::Icmpv6OptionLinkLayerAddress (( type = 1 length = 1 L2 Address = 00-06-00:00:00:00:00:02)) ns3::EthernetTrailer (fcs=0)
r 0.0098432 /NodeList/1/DeviceList/2/$ns3::CsmaNetDevice/MacRx ns3::EthernetHeader ( length/type=0x86dd, source=00:00:00:00:00:04, destination=33:33:ff:00:00:04) ns3::Ipv6Header ((Version 6 Traffic class 0x0 Flow Label 0x0 Payload Length 32 Next Header 58 Hop Limit 255 )0000:0000:0000:0000:0000:0000:0000:0000 > ff02:0000:0000:0000:0000:0000:0000:0001) ns3::Icmpv6NS (( type = 135 (NS) code = 0 checksum = 38231)) ns3::Icmpv6OptionLinkLayerAddress (( type = 1 length = 1 L2 Address = 00-06-00:00:00:00:00:04)) ns3::EthernetTrailer (fcs=0)
+ 1 /NodeList/0/DeviceList/1/$ns3::CsmaNetDevice/TxQueue/Enqueue ns3::EthernetHeader ( length/type=0x86dd, source=00:00:00:00:00:01, destination=33:33:00:00:00:02) ns3::Ipv6Header ((Version 6 Traffic class 0x0 Flow Label 0x0 Payload Length 16 Next Header 58 Hop Limit 255 )fe80:0000:0000:0000:0200:00ff:fe00:0001 > ff02:0000:0000:0000:0000:0000:0000:0002) ns3::Icmpv6RS (( type = 133 (RS) code = 0 checksum = 11387)) ns3::Icmpv6OptionLinkLayerAddress (( type = 1 length = 1 L2 Address = 00-06-00:00:00:00:00:01)) ns3::EthernetTrailer (fcs=0)
- 1 /NodeList/0/DeviceList/1/$ns3::CsmaNetDevice/TxQueue/Dequeue ns3::EthernetHeader ( length/type=0x86dd, source=00:00:00:00:00:01, destination=33:33:00:00:00:02) ns3::Ipv6Header ((Version 6 Traffic class 0x0 Flow Label 0x0 Payload Length 16 Next Header 58 Hop Limit 255 )fe80:0000:0000:0000:0200:00ff:fe00:0001 > ff02:0000:0000:0000:0000:0000:0000:0002) ns3::Icmpv6RS (( type = 133 (RS) code = 0 checksum = 11387)) ns3::Icmpv6OptionLinkLayerAddress (( type = 1 length = 1 L2 Address = 00-06-00:00:00:00:00:01)) ns3::EthernetTrailer (fcs=0)
+ 1 /NodeList/2/DeviceList/1/$ns3::CsmaNetDevice/TxQueue/Enqueue ns3::EthernetHeader ( length/type=0x86dd, source=00:00:00:00:00:04, destination=33:33:00:00:00:02) ns3::Ipv6Header ((Version 6 Traffic class 0x0 Flow Label 0x0 Payload Length 16 Next Header 58 Hop Limit 255 )fe80:0000:0000:0000:0200:00ff:fe00:0004 > ff02:0000:0000:0000:0000:0000:0000:0002) ns3::Icmpv6RS (( type = 133 (RS) code = 0 checksum = 9851)) ns3::Icmpv6OptionLinkLayerAddress (( type = 1 length = 1 L2 Address = 00-06-00:00:00:00:00:04)) ns3::EthernetTrailer (fcs=0)
- 1 /NodeList/2/DeviceList/1/$ns3::CsmaNetDevice/TxQueue/Dequeue ns3::EthernetHeader ( length/type=0x86dd, source=00:00:00:00:00:04, destination=33:33:00:00:00:02) ns3::Ipv6Header ((Version 6 Traffic class 0x0 Flow Label 0x0 Payload Length 16 Next Header 58 Hop Limit 255 )fe80:0000:0000:0000:0200:00ff:fe00:0004 > ff02:0000:0000:0000:0000:0000:0000:0002) ns3::Icmpv6RS (( type = 133 (RS) code = 0 checksum = 9851)) ns3::Icmpv6OptionLinkLayerAddress (( type = 1 length = 1 L2 Address = 00-06-00:00:00:00:00:04)) ns3::EthernetTrailer (fcs=0)
r 1.00212 /NodeList/1/DeviceList/1/$ns3::CsmaNetDevice/MacRx ns3::EthernetHeader ( length/type=0x86dd, source=00:00:00:00:00:01, destination=33:33:00:00:00:02) ns3::Ipv6Header ((Version 6 Traffic class 0x0 Flow Label 0x0 Payload Length 16 Next Header 58 Hop Limit 255 )fe80:0000:0000:0000:0200:00ff:fe00:0001 > ff02:0000:0000:0000:0000:0000:0000:0002) ns3::Icmpv6RS (( type = 133 (RS) code = 0 checksum = 11387)) ns3::Icmpv6OptionLinkLayerAddress (( type = 1 length = 1 L2 Address = 00-06-00:00:00:00:00:01)) ns3::EthernetTrailer (fcs=0)
r 1.00212 /NodeList/1/DeviceList/2/$ns3::CsmaNetDevice/MacRx ns3::EthernetHeader ( length/type=0x86dd, source=00:00:00:00:00:04, destination=33:33:00:00:00:02) ns3::Ipv6Header ((Version 6 Traffic class 0x0 Flow Label 0x0 Payload Length 16 Next Header 58 Hop Limit 255 )fe80:0000:0000:0000:0200:00ff:fe00:0004 > ff02:0000:0000:0000:0000:0000:0000:0002) ns3::Icmpv6RS (( type = 133 (RS) code = 0 checksum = 9851)) ns3::Icmpv6OptionLinkLayerAddress (( type = 1 length = 1 L2 Address = 00-06-00:00:00:00:00:04)) ns3::EthernetTrailer (fcs=0)
+ 2 /NodeList/0/DeviceList/1/$ns3::CsmaNetDevice/TxQueue/Enqueue ns3::EthernetHeader ( length/type=0x86dd, source=00:00:00:00:00:01, destination=33:33:ff:00:00:02) ns3::Ipv6Header ((Version 6 Traffic class 0x0 Flow Label 0x0 Payload Length 32 Next Header 58 Hop Limit 255 )2001:0001:0000:0000:0200:00ff:fe00:0001 > ff02:0000:0000:0000:0000:0001:ff00:0002) ns3::Icmpv6NS (( type = 135 (NS) code = 0 checksum = 38199)) ns3::Icmpv6OptionLinkLayerAddress (( type = 1 length = 1 L2 Address = 00-06-00:00:00:00:00:01)) ns3::EthernetTrailer (fcs=0)
- 2 /NodeList/0/DeviceList/1/$ns3::CsmaNetDevice/TxQueue/Dequeue ns3::EthernetHeader ( length/type=0x86dd, source=00:00:00:00:00:01, destination=33:33:ff:00:00:02) ns3::Ipv6Header ((Version 6 Traffic class 0x0 Flow Label 0x0 Payload Length 32 Next Header 58 Hop Limit 255 )2001:0001:0000:0000:0200:00ff:fe00:0001 > ff02:0000:0000:0000:0000:0001:ff00:0002) ns3::Icmpv6NS (( type = 135 (NS) code = 0 checksum = 38199)) ns3::Icmpv6OptionLinkLayerAddress (( type = 1 length = 1 L2 Address = 00-06-00:00:00:00:00:01)) ns3::EthernetTrailer (fcs=0)
r 2.00214 /NodeList/1/DeviceList/1/$ns3::CsmaNetDevice/MacRx ns3::EthernetHeader ( length/type=0x86dd, source=00:00:00:00:00:01, destination=33:33:ff:00:00:02) ns3::Ipv6Header ((Version 6 Traffic class 0x0 Flow Label 0x0 Payload Length 32 Next Header 58 Hop Limit 255 )2001:0001:0000:0000:0200:00ff:fe00:0001 > ff02:0000:0000:0000:0000:0001:ff00:0002) ns3::Icmpv6NS (( type = 135 (NS) code = 0 checksum = 38199)) ns3::Icmpv6OptionLinkLayerAddress (( type = 1 length = 1 L2 Address = 00-06-00:00:00:00:00:01)) ns3::EthernetTrailer (fcs=0)
+ 2.00214 /NodeList/1/DeviceList/1/$ns3::CsmaNetDevice/TxQueue/Enqueue ns3::EthernetHeader ( length/type=0x86dd, source=00:00:00:00:00:02, destination=00:00:00:00:00:01) ns3::Ipv6Header ((Version 6 Traffic class 0x0 Flow Label 0x0 Payload Length 32 Next Header 58 Hop Limit 255 )2001:0001:0000:0000:0200:00ff:fe00:0002 > 2001:0001:0000:0000:0200:00ff:fe00:0001) ns3::Icmpv6NA (( type = 136 (NA) code = 0 checksum = 38450)) ns3::Icmpv6OptionLinkLayerAddress (( type = 2 length = 1 L2 Address = 00-06-00:00:00:00:00:02)) ns3::EthernetTrailer (fcs=0)
- 2.00214 /NodeList/1/DeviceList/1/$ns3::CsmaNetDevice/TxQueue/Dequeue ns3::EthernetHeader ( length/type=0x86dd, source=00:00:00:00:00:02, destination=00:00:00:00:00:01) ns3::Ipv6Header ((Version 6 Traffic class 0x0 Flow Label 0x0 Payload Length 32 Next Header 58 Hop Limit 255 )2001:0001:0000:0000:0200:00ff:fe00:0002 > 2001:0001:0000:0000:0200:00ff:fe00:0001) ns3::Icmpv6NA (( type = 136 (NA) code = 0 checksum = 38450)) ns3::Icmpv6OptionLinkLayerAddress (( type = 2 length = 1 L2 Address = 00-06-00:00:00:00:00:02)) ns3::EthernetTrailer (fcs=0)
r 2.00429 /NodeList/0/DeviceList/1/$ns3::CsmaNetDevice/MacRx ns3::EthernetHeader ( length/type=0x86dd, source=00:00:00:00:00:02, destination=00:00:00:00:00:01) ns3::Ipv6Header ((Version 6 Traffic class 0x0 Flow Label 0x0 Payload Length 32 Next Header 58 Hop Limit 255 )2001:0001:0000:0000:0200:00ff:fe00:0002 > 2001:0001:0000:0000:0200:00ff:fe00:0001) ns3::Icmpv6NA (( type = 136 (NA) code = 0 checksum = 38450)) ns3::Icmpv6OptionLinkLayerAddress (( type = 2 length = 1 L2 Address = 00-06-00:00:00:00:00:02)) ns3::EthernetTrailer (fcs=0)
+ 2.00429 /NodeList/0/DeviceList/1/$ns3::CsmaNetDevice/TxQueue/Enqueue ns3::EthernetHeader ( length/type=0x86dd, source=00:00:00:00:00:01, destination=00:00:00:00:00:02) ns3::Ipv6Header ((Version 6 Traffic class 0x0 Flow Label 0x0 Payload Length 1456 Next Header 44 Hop Limit 64 )2001:0001:0000:0000:0200:00ff:fe00:0001 > 2001:0002:0000:0000:0200:00ff:fe00:0004) ns3::Ipv6ExtensionFragmentHeader (( nextHeader = 58 length = 1448 offset = 0 MF = 1 identification = 2837832477 )) ns3::Icmpv6Echo (( type = 128 (Request) code = 0 checksum = 9681)) Payload (size=4) Payload Fragment [0:1436] ns3::EthernetTrailer (fcs=0)
- 2.00429 /NodeList/0/DeviceList/1/$ns3::CsmaNetDevice/TxQueue/Dequeue ns3::EthernetHeader ( length/type=0x86dd, source=00:00:00:00:00:01, destination=00:00:00:00:00:02) ns3::Ipv6Header ((Version 6 Traffic class 0x0 Flow Label 0x0 Payload Length 1456 Next Header 44 Hop Limit 64 )2001:0001:0000:0000:0200:00ff:fe00:0001 > 2001:0002:0000:0000:0200:00ff:fe00:0004) ns3::Ipv6ExtensionFragmentHeader (( nextHeader = 58 length = 1448 offset = 0 MF = 1 identification = 2837832477 )) ns3::Icmpv6Echo (( type = 128 (Request) code = 0 checksum = 9681)) Payload (size=4) Payload Fragment [0:1436] ns3::EthernetTrailer (fcs=0)
+ 2.00429 /NodeList/0/DeviceList/1/$ns3::CsmaNetDevice/TxQueue/Enqueue ns3::EthernetHeader ( length/type=0x86dd, source=00:00:00:00:00:01, destination=00:00:00:00:00:02) ns3::Ipv6Header ((Version 6 Traffic class 0x0 Flow Label 0x0 Payload Length 1456 Next Header 44 Hop Limit 64 )2001:0001:0000:0000:0200:00ff:fe00:0001 > 2001:0002:0000:0000:0200:00ff:fe00:0004) ns3::Ipv6ExtensionFragmentHeader (( nextHeader = 58 length = 1448 offset = 1448 MF = 1 identification = 2837832477 )) Payload Fragment [1436:2884] ns3::EthernetTrailer (fcs=0)
+ 2.00429 /NodeList/0/DeviceList/1/$ns3::CsmaNetDevice/TxQueue/Enqueue ns3::EthernetHeader ( length/type=0x86dd, source=00:00:00:00:00:01, destination=00:00:00:00:00:02) ns3::Ipv6Header ((Version 6 Traffic class 0x0 Flow Label 0x0 Payload Length 1216 Next Header 44 Hop Limit 64 )2001:0001:0000:0000:0200:00ff:fe00:0001 > 2001:0002:0000:0000:0200:00ff:fe00:0004) ns3::Ipv6ExtensionFragmentHeader (( nextHeader = 58 length = 1208 offset = 2896 MF = 0 identification = 2837832477 )) Payload Fragment [2884:4092] ns3::EthernetTrailer (fcs=0)
- 2.00673 /NodeList/0/DeviceList/1/$ns3::CsmaNetDevice/TxQueue/Dequeue ns3::EthernetHeader ( length/type=0x86dd, source=00:00:00:00:00:01, destination=00:00:00:00:00:02) ns3::Ipv6Header ((Version 6 Traffic class 0x0 Flow Label 0x0 Payload Length 1456 Next Header 44 Hop Limit 64 )2001:0001:0000:0000:0200:00ff:fe00:0001 > 2001:0002:0000:0000:0200:00ff:fe00:0004) ns3::Ipv6ExtensionFragmentHeader (( nextHeader = 58 length = 1448 offset = 1448 MF = 1 identification = 2837832477 )) Payload Fragment [1436:2884] ns3::EthernetTrailer (fcs=0)
r 2.00871 /NodeList/1/DeviceList/1/$ns3::CsmaNetDevice/MacRx ns3::EthernetHeader ( length/type=0x86dd, source=00:00:00:00:00:01, destination=00:00:00:00:00:02) ns3::Ipv6Header ((Version 6 Traffic class 0x0 Flow Label 0x0 Payload Length 1456 Next Header 44 Hop Limit 64 )2001:0001:0000:0000:0200:00ff:fe00:0001 > 2001:0002:0000:0000:0200:00ff:fe00:0004) ns3::Ipv6ExtensionFragmentHeader (( nextHeader = 58 length = 1448 offset = 0 MF = 1 identification = 2837832477 )) ns3::Icmpv6Echo (( type = 128 (Request) code = 0 checksum = 9681)) Payload (size=4) Payload Fragment [0:1436] ns3::EthernetTrailer (fcs=0)
+ 2.00871 /NodeList/1/DeviceList/2/$ns3::CsmaNetDevice/TxQueue/Enqueue ns3::EthernetHeader ( length/type=0x86dd, source=00:00:00:00:00:03, destination=33:33:ff:00:00:04) ns3::Ipv6Header ((Version 6 Traffic class 0x0 Flow Label 0x0 Payload Length 32 Next Header 58 Hop Limit 255 )2001:0002:0000:0000:0200:00ff:fe00:0003 > ff02:0000:0000:0000:0000:0001:ff00:0004) ns3::Icmpv6NS (( type = 135 (NS) code = 0 checksum = 35639)) ns3::Icmpv6OptionLinkLayerAddress (( type = 1 length = 1 L2 Address = 00-06-00:00:00:00:00:03)) ns3::EthernetTrailer (fcs=0)
- 2.00871 /NodeList/1/DeviceList/2/$ns3::CsmaNetDevice/TxQueue/Dequeue ns3::EthernetHeader ( length/type=0x86dd, source=00:00:00:00:00:03, destination=33:33:ff:00:00:04) ns3::Ipv6Header ((Version 6 Traffic class 0x0 Flow Label 0x0 Payload Length 32 Next Header 58 Hop Limit 255 )2001:0002:0000:0000:0200:00ff:fe00:0003 > ff02:0000:0000:0000:0000:0001:ff00:0004) ns3::Icmpv6NS (( type = 135 (NS) code = 0 checksum = 35639)) ns3::Icmpv6OptionLinkLayerAddress (( type = 1 length = 1 L2 Address = 00-06-00:00:00:00:00:03)) ns3::EthernetTrailer (fcs=0)
r 2.01086 /NodeList/2/DeviceList/1/$ns3::CsmaNetDevice/MacRx ns3::EthernetHeader ( length/type=0x86dd, source=00:00:00:00:00:03, destination=33:33:ff:00:00:04) ns3::Ipv6Header ((Version 6 Traffic class 0x0 Flow Label 0x0 Payload Length 32 Next Header 58 Hop Limit 255 )2001:0002:0000:0000:0200:00ff:fe00:0003 > ff02:0000:0000:0000:0000:0001:ff00:0004) ns3::Icmpv6NS (( type = 135 (NS) code = 0 checksum = 35639)) ns3::Icmpv6OptionLinkLayerAddress (( type = 1 length = 1 L2 Address = 00-06-00:00:00:00:00:03)) ns3::EthernetTrailer (fcs=0)
+ 2.01086 /NodeList/2/DeviceList/1/$ns3::CsmaNetDevice/TxQueue/Enqueue ns3::EthernetHeader ( length/type=0x86dd, source=00:00:00:00:00:04, destination=00:00:00:00:00:03) ns3::Ipv6Header ((Version 6 Traffic class 0x0 Flow Label 0x0 Payload Length 32 Next Header 58 Hop Limit 255 )2001:0002:0000:0000:0200:00ff:fe00:0004 > 2001:0002:0000:0000:0200:00ff:fe00:0003) ns3::Icmpv6NA (( type = 136 (NA) code = 0 checksum = 35762)) ns3::Icmpv6OptionLinkLayerAddress (( type = 2 length = 1 L2 Address = 00-06-00:00:00:00:00:04)) ns3::EthernetTrailer (fcs=0)
- 2.01086 /NodeList/2/DeviceList/1/$ns3::CsmaNetDevice/TxQueue/Dequeue ns3::EthernetHeader ( length/type=0x86dd, source=00:00:00:00:00:04, destination=00:00:00:00:00:03) ns3::Ipv6Header ((Version 6 Traffic class 0x0 Flow Label 0x0 Payload Length 32 Next Header 58 Hop Limit 255 )2001:0002:0000:0000:0200:00ff:fe00:0004 > 2001:0002:0000:0000:0200:00ff:fe00:0003) ns3::Icmpv6NA (( type = 136 (NA) code = 0 checksum = 35762)) ns3::Icmpv6OptionLinkLayerAddress (( type = 2 length = 1 L2 Address = 00-06-00:00:00:00:00:04)) ns3::EthernetTrailer (fcs=0)
- 2.01146 /NodeList/0/DeviceList/1/$ns3::CsmaNetDevice/TxQueue/Dequeue ns3::EthernetHeader ( length/type=0x86dd, source=00:00:00:00:00:01, destination=00:00:00:00:00:02) ns3::Ipv6Header ((Version 6 Traffic class 0x0 Flow Label 0x0 Payload Length 1216 Next Header 44 Hop Limit 64 )2001:0001:0000:0000:0200:00ff:fe00:0001 > 2001:0002:0000:0000:0200:00ff:fe00:0004) ns3::Ipv6ExtensionFragmentHeader (( nextHeader = 58 length = 1208 offset = 2896 MF = 0 identification = 2837832477 )) Payload Fragment [2884:4092] ns3::EthernetTrailer (fcs=0)
r 2.013 /NodeList/1/DeviceList/2/$ns3::CsmaNetDevice/MacRx ns3::EthernetHeader ( length/type=0x86dd, source=00:00:00:00:00:04, destination=00:00:00:00:00:03) ns3::Ipv6Header ((Version 6 Traffic class 0x0 Flow Label 0x0 Payload Length 32 Next Header 58 Hop Limit 255 )2001:0002:0000:0000:0200:00ff:fe00:0004 > 2001:0002:0000:0000:0200:00ff:fe00:0003) ns3::Icmpv6NA (( type = 136 (NA) code = 0 checksum = 35762)) ns3::Icmpv6OptionLinkLayerAddress (( type = 2 length = 1 L2 Address = 00-06-00:00:00:00:00:04)) ns3::EthernetTrailer (fcs=0)
+ 2.013 /NodeList/1/DeviceList/2/$ns3::CsmaNetDevice/TxQueue/Enqueue ns3::EthernetHeader ( length/type=0x86dd, source=00:00:00:00:00:03, destination=00:00:00:00:00:04) ns3::Ipv6Header ((Version 6 Traffic class 0x0 Flow Label 0x0 Payload Length 1456 Next Header 44 Hop Limit 63 )2001:0001:0000:0000:0200:00ff:fe00:0001 > 2001:0002:0000:0000:0200:00ff:fe00:0004) ns3::Ipv6ExtensionFragmentHeader (( nextHeader = 58 length = 1448 offset = 0 MF = 1 identification = 2837832477 )) ns3::Icmpv6Echo (( type = 128 (Request) code = 0 checksum = 9681)) Payload (size=4) Payload Fragment [0:1436] ns3::EthernetTrailer (fcs=0)
- 2.013 /NodeList/1/DeviceList/2/$ns3::CsmaNetDevice/TxQueue/Dequeue ns3::EthernetHeader ( length/type=0x86dd, source=00:00:00:00:00:03, destination=00:00:00:00:00:04) ns3::Ipv6Header ((Version 6 Traffic class 0x0 Flow Label 0x0 Payload Length 1456 Next Header 44 Hop Limit 63 )2001:0001:0000:0000:0200:00ff:fe00:0001 > 2001:0002:0000:0000:0200:00ff:fe00:0004) ns3::Ipv6ExtensionFragmentHeader (( nextHeader = 58 length = 1448 offset = 0 MF = 1 identification = 2837832477 )) ns3::Icmpv6Echo (( type = 128 (Request) code = 0 checksum = 9681)) Payload (size=4) Payload Fragment [0:1436] ns3::EthernetTrailer (fcs=0)
r 2.01344 /NodeList/1/DeviceList/1/$ns3::CsmaNetDevice/MacRx ns3::EthernetHeader ( length/type=0x86dd, source=00:00:00:00:00:01, destination=00:00:00:00:00:02) ns3::Ipv6Header ((Version 6 Traffic class 0x0 Flow Label 0x0 Payload Length 1456 Next Header 44 Hop Limit 64 )2001:0001:0000:0000:0200:00ff:fe00:0001 > 2001:0002:0000:0000:0200:00ff:fe00:0004) ns3::Ipv6ExtensionFragmentHeader (( nextHeader = 58 length = 1448 offset = 1448 MF = 1 identification = 2837832477 )) Payload Fragment [1436:2884] ns3::EthernetTrailer (fcs=0)
+ 2.01344 /NodeList/1/DeviceList/2/$ns3::CsmaNetDevice/TxQueue/Enqueue ns3::EthernetHeader ( length/type=0x86dd, source=00:00:00:00:00:03, destination=00:00:00:00:00:04) ns3::Ipv6Header ((Version 6 Traffic class 0x0 Flow Label 0x0 Payload Length 1456 Next Header 44 Hop Limit 63 )2001:0001:0000:0000:0200:00ff:fe00:0001 > 2001:0002:0000:0000:0200:00ff:fe00:0004) ns3::Ipv6ExtensionFragmentHeader (( nextHeader = 58 length = 1448 offset = 1448 MF = 1 identification = 2837832477 )) Payload Fragment [1436:2884] ns3::EthernetTrailer (fcs=0)
- 2.01544 /NodeList/1/DeviceList/2/$ns3::CsmaNetDevice/TxQueue/Dequeue ns3::EthernetHeader ( length/type=0x86dd, source=00:00:00:00:00:03, destination=00:00:00:00:00:04) ns3::Ipv6Header ((Version 6 Traffic class 0x0 Flow Label 0x0 Payload Length 1456 Next Header 44 Hop Limit 63 )2001:0001:0000:0000:0200:00ff:fe00:0001 > 2001:0002:0000:0000:0200:00ff:fe00:0004) ns3::Ipv6ExtensionFragmentHeader (( nextHeader = 58 length = 1448 offset = 1448 MF = 1 identification = 2837832477 )) Payload Fragment [1436:2884] ns3::EthernetTrailer (fcs=0)